TITLE="Directional cutoff rigidity sky-map (POINT 0)"
VARIABLES="lon_deg","lat_deg","Rc_GV","Emin_MeV"
ZONE T="point=0 x_km=7000 y_km=4000 z_km=5000" I=72 J=37 F=POINT
0.000000e+00 -9.000000e+01 3.828396e+00 3.003424e+03
5.000000e+00 -9.000000e+01 3.828396e+00 3.003424e+03
1.000000e+01 -9.000000e+01 3.828396e+00 3.003424e+03
1.500000e+01 -9.000000e+01 3.828396e+00 3.003424e+03
2.000000e+01 -9.000000e+01 3.828396e+00 3.003424e+03
2.500000e+01 -9.000000e+01 3.828396e+00 3.003424e+03
3.000000e+01 -9.000000e+01 3.828396e+00 3.003424e+03
3.500000e+01 -9.000000e+01 3.828396e+00 3.003424e+03
4.000000e+01 -9.000000e+01 3.828396e+00 3.003424e+03
4.500000e+01 -9.000000e+01 3.828396e+00 3.003424e+03
5.000000e+01 -9.000000e+01 3.828396e+00 3.003424e+03
5.500000e+01 -9.000000e+01 3.828396e+00 3.003424e+03
6.000000e+01 -9.000000e+01 3.828396e+00 3.003424e+03
6.500000e+01 -9.000000e+01 3.828396e+00 3.003424e+03
7.000000e+01 -9.000000e+01 3.828396e+00 3.003424e+03
7.500000e+01 -9.000000e+01 3.828396e+00 3.003424e+03
8.000000e+01 -9.000000e+01 3.828396e+00 3.003424e+03
8.500000e+01 -9.000000e+01 3.828396e+00 3.003424e+03
9.000000e+01 -9.000000e+01 3.828396e+00 3.003424e+03
9.500000e+01 -9.000000e+01 3.828396e+00 3.003424e+03
1.000000e+02 -9.000000e+01 3.828396e+00 3.003424e+03
1.050000e+02 -9.000000e+01 3.828396e+00 3.003424e+03
1.100000e+02 -9.000000e+01 3.828396e+00 3.003424e+03
1.150000e+02 -9.000000e+01 3.828396e+00 3.003424e+03
1.200000e+02 -9.000000e+01 3.828396e+00 3.003424e+03
1.250000e+02 -9.000000e+01 3.828396e+00 3.003424e+03
1.300000e+02 -9.000000e+01 3.828396e+00 3.003424e+03
1.350000e+02 -9.000000e+01 3.828396e+00 3.003424e+03
1.400000e+02 -9.000000e+01 3.828396e+00 3.003424e+03
1.450000e+02 -9.000000e+01 3.828396e+00 3.003424e+03
1.500000e+02 -9.000000e+01 3.828396e+00 3.003424e+03
1.550000e+02 -9.000000e+01 3.828396e+00 3.003424e+03
1.600000e+02 -9.000000e+01 3.828396e+00 3.003424e+03
1.650000e+02 -9.000000e+01 3.828396e+00 3.003424e+03
1.700000e+02 -9.000000e+01 3.828396e+00 3.003424e+03
1.750000e+02 -9.000000e+01 3.828396e+00 3.003424e+03
1.800000e+02 -9.000000e+01 3.828396e+00 3.003424e+03
1.850000e+02 -9.000000e+01 3.828396e+00 3.003424e+03
1.900000e+02 -9.000000e+01 3.817077e+00 2.992432e+03
1.950000e+02 -9.000000e+01 3.817077e+00 2.992432e+03
2.000000e+02 -9.000000e+01 3.817077e+00 2.992432e+03
2.050000e+02 -9.000000e+01 3.817077e+00 2.992432e+03
2.100000e+02 -9.000000e+01 3.817077e+00 2.992432e+03
2.150000e+02 -9.000000e+01 3.817077e+00 2.992432e+03
2.200000e+02 -9.000000e+01 3.817077e+00 2.992432e+03
2.250000e+02 -9.000000e+01 3.817077e+00 2.992432e+03
2.300000e+02 -9.000000e+01 3.817077e+00 2.992432e+03
2.350000e+02 -9.000000e+01 3.817077e+00 2.992432e+03
2.400000e+02 -9.000000e+01 3.828396e+00 3.003424e+03
2.450000e+02 -9.000000e+01 3.828396e+00 3.003424e+03
2.500000e+02 -9.000000e+01 3.828396e+00 3.003424e+03
2.550000e+02 -9.000000e+01 3.828396e+00 3.003424e+03
2.600000e+02 -9.000000e+01 3.828396e+00 3.003424e+03
2.650000e+02 -9.000000e+01 3.828396e+00 3.003424e+03
2.700000e+02 -9.000000e+01 3.828396e+00 3.003424e+03
2.750000e+02 -9.000000e+01 3.828396e+00 3.003424e+03
2.800000e+02 -9.000000e+01 3.828396e+00 3.003424e+03
2.850000e+02 -9.000000e+01 3.828396e+00 3.003424e+03
2.900000e+02 -9.000000e+01 3.828396e+00 3.003424e+03
2.950000e+02 -9.000000e+01 3.828396e+00 3.003424e+03
3.000000e+02 -9.000000e+01 3.828396e+00 3.003424e+03
3.050000e+02 -9.000000e+01 3.828396e+00 3.003424e+03
3.100000e+02 -9.000000e+01 3.828396e+00 3.003424e+03
3.150000e+02 -9.000000e+01 3.828396e+00 3.003424e+03
3.200000e+02 -9.000000e+01 3.828396e+00 3.003424e+03
3.250000e+02 -9.000000e+01 3.828396e+00 3.003424e+03
3.300000e+02 -9.000000e+01 3.828396e+00 3.003424e+03
3.350000e+02 -9.000000e+01 3.828396e+00 3.003424e+03
3.400000e+02 -9.000000e+01 3.828396e+00 3.003424e+03
3.450000e+02 -9.000000e+01 3.828396e+00 3.003424e+03
3.500000e+02 -9.000000e+01 3.828396e+00 3.003424e+03
3.550000e+02 -9.000000e+01 3.828396e+00 3.003424e+03
0.000000e+00 -8.500000e+01 4.089698e+00 3.257676e+03
5.000000e+00 -8.500000e+01 3.862571e+00 3.036625e+03
1.000000e+01 -8.500000e+01 3.794110e+00 2.970132e+03
1.500000e+01 -8.500000e+01 3.857997e+00 3.032181e+03
2.000000e+01 -8.500000e+01 4.053579e+00 3.222480e+03
2.500000e+01 -8.500000e+01 3.793740e+00 2.969773e+03
3.000000e+01 -8.500000e+01 3.783540e+00 2.959873e+03
3.500000e+01 -8.500000e+01 3.778543e+00 2.955022e+03
4.000000e+01 -8.500000e+01 3.783835e+00 2.960159e+03
4.500000e+01 -8.500000e+01 3.797255e+00 2.973185e+03
5.000000e+01 -8.500000e+01 3.991719e+00 3.162237e+03
5.500000e+01 -8.500000e+01 3.997999e+00 3.168351e+03
6.000000e+01 -8.500000e+01 3.753177e+00 2.930409e+03
6.500000e+01 -8.500000e+01 3.712550e+00 2.891007e+03
7.000000e+01 -8.500000e+01 3.719886e+00 2.898120e+03
7.500000e+01 -8.500000e+01 3.814706e+00 2.990129e+03
8.000000e+01 -8.500000e+01 3.797052e+00 2.972989e+03
8.500000e+01 -8.500000e+01 3.795492e+00 2.971474e+03
9.000000e+01 -8.500000e+01 3.729389e+00 2.907335e+03
9.500000e+01 -8.500000e+01 3.840614e+00 3.015292e+03
1.000000e+02 -8.500000e+01 3.733803e+00 2.911616e+03
1.050000e+02 -8.500000e+01 3.814497e+00 2.989926e+03
1.100000e+02 -8.500000e+01 3.712458e+00 2.890918e+03
1.150000e+02 -8.500000e+01 3.794448e+00 2.970461e+03
1.200000e+02 -8.500000e+01 3.773855e+00 2.950472e+03
1.250000e+02 -8.500000e+01 3.783988e+00 2.960307e+03
1.300000e+02 -8.500000e+01 3.754820e+00 2.932003e+03
1.350000e+02 -8.500000e+01 3.799608e+00 2.975470e+03
1.400000e+02 -8.500000e+01 3.835106e+00 3.009941e+03
1.450000e+02 -8.500000e+01 3.800364e+00 2.976204e+03
1.500000e+02 -8.500000e+01 3.916659e+00 3.089205e+03
1.550000e+02 -8.500000e+01 3.806983e+00 2.982630e+03
1.600000e+02 -8.500000e+01 4.157046e+00 3.323346e+03
1.650000e+02 -8.500000e+01 4.206004e+00 3.371115e+03
1.700000e+02 -8.500000e+01 4.163128e+00 3.329279e+03
1.750000e+02 -8.500000e+01 4.047071e+00 3.216139e+03
1.800000e+02 -8.500000e+01 4.120423e+00 3.287629e+03
1.850000e+02 -8.500000e+01 3.985943e+00 3.156614e+03
1.900000e+02 -8.500000e+01 3.952469e+00 3.124039e+03
1.950000e+02 -8.500000e+01 3.948255e+00 3.119939e+03
2.000000e+02 -8.500000e+01 3.913877e+00 3.086500e+03
2.050000e+02 -8.500000e+01 4.283345e+00 3.446633e+03
2.100000e+02 -8.500000e+01 3.922497e+00 3.094883e+03
2.150000e+02 -8.500000e+01 3.893588e+00 3.066773e+03
2.200000e+02 -8.500000e+01 4.283494e+00 3.446779e+03
2.250000e+02 -8.500000e+01 3.945298e+00 3.117061e+03
2.300000e+02 -8.500000e+01 4.294174e+00 3.457212e+03
2.350000e+02 -8.500000e+01 3.969552e+00 3.140661e+03
2.400000e+02 -8.500000e+01 4.051321e+00 3.220280e+03
2.450000e+02 -8.500000e+01 4.043858e+00 3.213010e+03
2.500000e+02 -8.500000e+01 4.120934e+00 3.288127e+03
2.550000e+02 -8.500000e+01 4.138428e+00 3.305187e+03
2.600000e+02 -8.500000e+01 4.186955e+00 3.352526e+03
2.650000e+02 -8.500000e+01 4.294253e+00 3.457290e+03
2.700000e+02 -8.500000e+01 4.309782e+00 3.472462e+03
2.750000e+02 -8.500000e+01 3.910173e+00 3.082898e+03
2.800000e+02 -8.500000e+01 4.410317e+00 3.570747e+03
2.850000e+02 -8.500000e+01 4.479247e+00 3.638190e+03
2.900000e+02 -8.500000e+01 3.961449e+00 3.132776e+03
2.950000e+02 -8.500000e+01 4.079786e+00 3.248016e+03
3.000000e+02 -8.500000e+01 4.228282e+00 3.392862e+03
3.050000e+02 -8.500000e+01 4.609518e+00 3.765770e+03
3.100000e+02 -8.500000e+01 3.916280e+00 3.088836e+03
3.150000e+02 -8.500000e+01 3.935964e+00 3.107981e+03
3.200000e+02 -8.500000e+01 3.875631e+00 3.049317e+03
3.250000e+02 -8.500000e+01 4.023957e+00 3.193627e+03
3.300000e+02 -8.500000e+01 3.894632e+00 3.067788e+03
3.350000e+02 -8.500000e+01 3.945211e+00 3.116977e+03
3.400000e+02 -8.500000e+01 4.039146e+00 3.208420e+03
3.450000e+02 -8.500000e+01 4.003873e+00 3.174069e+03
3.500000e+02 -8.500000e+01 3.978075e+00 3.148956e+03
3.550000e+02 -8.500000e+01 3.831669e+00 3.006603e+03
0.000000e+00 -8.000000e+01 4.001176e+00 3.171444e+03
5.000000e+00 -8.000000e+01 4.383048e+00 3.544078e+03
1.000000e+01 -8.000000e+01 3.866717e+00 3.040654e+03
1.500000e+01 -8.000000e+01 3.842512e+00 3.017136e+03
2.000000e+01 -8.000000e+01 3.848290e+00 3.022749e+03
2.500000e+01 -8.000000e+01 3.872099e+00 3.045885e+03
3.000000e+01 -8.000000e+01 3.856629e+00 3.030851e+03
3.500000e+01 -8.000000e+01 3.887681e+00 3.061030e+03
4.000000e+01 -8.000000e+01 3.831744e+00 3.006676e+03
4.500000e+01 -8.000000e+01 3.782956e+00 2.959305e+03
5.000000e+01 -8.000000e+01 3.795663e+00 2.971639e+03
5.500000e+01 -8.000000e+01 3.718867e+00 2.897132e+03
6.000000e+01 -8.000000e+01 3.692761e+00 2.871825e+03
6.500000e+01 -8.000000e+01 3.733920e+00 2.911730e+03
7.000000e+01 -8.000000e+01 3.630980e+00 2.811977e+03
7.500000e+01 -8.000000e+01 3.795028e+00 2.971023e+03
8.000000e+01 -8.000000e+01 3.978848e+00 3.149709e+03
8.500000e+01 -8.000000e+01 3.657779e+00 2.837929e+03
9.000000e+01 -8.000000e+01 3.630397e+00 2.811412e+03
9.500000e+01 -8.000000e+01 3.619850e+00 2.801202e+03
1.000000e+02 -8.000000e+01 3.601999e+00 2.783925e+03
1.050000e+02 -8.000000e+01 3.656976e+00 2.837152e+03
1.100000e+02 -8.000000e+01 3.644181e+00 2.824760e+03
1.150000e+02 -8.000000e+01 3.586004e+00 2.768449e+03
1.200000e+02 -8.000000e+01 3.605250e+00 2.787072e+03
1.250000e+02 -8.000000e+01 3.715143e+00 2.893521e+03
1.300000e+02 -8.000000e+01 3.629206e+00 2.810260e+03
1.350000e+02 -8.000000e+01 3.609313e+00 2.791003e+03
1.400000e+02 -8.000000e+01 4.121399e+00 3.288581e+03
1.450000e+02 -8.000000e+01 4.020893e+00 3.190642e+03
1.500000e+02 -8.000000e+01 3.868028e+00 3.041928e+03
1.550000e+02 -8.000000e+01 4.210296e+00 3.375305e+03
1.600000e+02 -8.000000e+01 3.663586e+00 2.843555e+03
1.650000e+02 -8.000000e+01 4.120904e+00 3.288098e+03
1.700000e+02 -8.000000e+01 3.809500e+00 2.985074e+03
1.750000e+02 -8.000000e+01 3.909990e+00 3.082720e+03
1.800000e+02 -8.000000e+01 3.854225e+00 3.028516e+03
1.850000e+02 -8.000000e+01 3.835361e+00 3.010189e+03
1.900000e+02 -8.000000e+01 3.826043e+00 3.001139e+03
1.950000e+02 -8.000000e+01 3.792277e+00 2.968353e+03
2.000000e+02 -8.000000e+01 3.781853e+00 2.958235e+03
2.050000e+02 -8.000000e+01 3.790105e+00 2.966244e+03
2.100000e+02 -8.000000e+01 3.793710e+00 2.969744e+03
2.150000e+02 -8.000000e+01 3.801755e+00 2.977554e+03
2.200000e+02 -8.000000e+01 3.844744e+00 3.019305e+03
2.250000e+02 -8.000000e+01 3.879151e+00 3.052739e+03
2.300000e+02 -8.000000e+01 3.906718e+00 3.079538e+03
2.350000e+02 -8.000000e+01 3.901812e+00 3.074768e+03
2.400000e+02 -8.000000e+01 3.929779e+00 3.101965e+03
2.450000e+02 -8.000000e+01 3.957104e+00 3.128548e+03
2.500000e+02 -8.000000e+01 4.014043e+00 3.183971e+03
2.550000e+02 -8.000000e+01 4.080981e+00 3.249180e+03
2.600000e+02 -8.000000e+01 4.151110e+00 3.317556e+03
2.650000e+02 -8.000000e+01 4.026399e+00 3.196004e+03
2.700000e+02 -8.000000e+01 4.057099e+00 3.225909e+03
2.750000e+02 -8.000000e+01 4.330258e+00 3.492471e+03
2.800000e+02 -8.000000e+01 4.110489e+00 3.277944e+03
2.850000e+02 -8.000000e+01 4.325327e+00 3.487652e+03
2.900000e+02 -8.000000e+01 4.389099e+00 3.549995e+03
2.950000e+02 -8.000000e+01 4.539750e+00 3.697425e+03
3.000000e+02 -8.000000e+01 4.657071e+00 3.812376e+03
3.050000e+02 -8.000000e+01 4.936729e+00 4.086830e+03
3.100000e+02 -8.000000e+01 4.098559e+00 3.266313e+03
3.150000e+02 -8.000000e+01 4.102924e+00 3.270569e+03
3.200000e+02 -8.000000e+01 4.129338e+00 3.296322e+03
3.250000e+02 -8.000000e+01 3.992381e+00 3.162882e+03
3.300000e+02 -8.000000e+01 3.957183e+00 3.128625e+03
3.350000e+02 -8.000000e+01 3.966974e+00 3.138152e+03
3.400000e+02 -8.000000e+01 4.136206e+00 3.303020e+03
3.450000e+02 -8.000000e+01 3.916419e+00 3.088972e+03
3.500000e+02 -8.000000e+01 4.320473e+00 3.482909e+03
3.550000e+02 -8.000000e+01 3.977754e+00 3.148643e+03
0.000000e+00 -7.500000e+01 4.290011e+00 3.453145e+03
5.000000e+00 -7.500000e+01 4.181172e+00 3.346883e+03
1.000000e+01 -7.500000e+01 4.283993e+00 3.447266e+03
1.500000e+01 -7.500000e+01 4.355016e+00 3.516671e+03
2.000000e+01 -7.500000e+01 4.406746e+00 3.567254e+03
2.500000e+01 -7.500000e+01 3.783697e+00 2.960025e+03
3.000000e+01 -7.500000e+01 3.790896e+00 2.967012e+03
3.500000e+01 -7.500000e+01 3.797580e+00 2.973501e+03
4.000000e+01 -7.500000e+01 3.692079e+00 2.871164e+03
4.500000e+01 -7.500000e+01 3.688901e+00 2.868083e+03
5.000000e+01 -7.500000e+01 3.663272e+00 2.843251e+03
5.500000e+01 -7.500000e+01 4.054399e+00 3.223279e+03
6.000000e+01 -7.500000e+01 3.960315e+00 3.131673e+03
6.500000e+01 -7.500000e+01 3.793959e+00 2.969986e+03
7.000000e+01 -7.500000e+01 3.618459e+00 2.799855e+03
7.500000e+01 -7.500000e+01 3.548661e+00 2.732334e+03
8.000000e+01 -7.500000e+01 3.568699e+00 2.751710e+03
8.500000e+01 -7.500000e+01 3.988686e+00 3.159285e+03
9.000000e+01 -7.500000e+01 3.534670e+00 2.718810e+03
9.500000e+01 -7.500000e+01 3.495748e+00 2.681204e+03
1.000000e+02 -7.500000e+01 3.567455e+00 2.750506e+03
1.050000e+02 -7.500000e+01 3.534399e+00 2.718548e+03
1.100000e+02 -7.500000e+01 3.661639e+00 2.841669e+03
1.150000e+02 -7.500000e+01 3.576460e+00 2.759216e+03
1.200000e+02 -7.500000e+01 3.505758e+00 2.690873e+03
1.250000e+02 -7.500000e+01 3.469228e+00 2.655597e+03
1.300000e+02 -7.500000e+01 3.467956e+00 2.654370e+03
1.350000e+02 -7.500000e+01 3.552240e+00 2.735794e+03
1.400000e+02 -7.500000e+01 3.784184e+00 2.960497e+03
1.450000e+02 -7.500000e+01 3.695135e+00 2.874126e+03
1.500000e+02 -7.500000e+01 3.529107e+00 2.713433e+03
1.550000e+02 -7.500000e+01 3.590375e+00 2.772678e+03
1.600000e+02 -7.500000e+01 3.684384e+00 2.863706e+03
1.650000e+02 -7.500000e+01 3.604590e+00 2.786432e+03
1.700000e+02 -7.500000e+01 3.610311e+00 2.791969e+03
1.750000e+02 -7.500000e+01 3.623228e+00 2.804472e+03
1.800000e+02 -7.500000e+01 3.795884e+00 2.971854e+03
1.850000e+02 -7.500000e+01 3.687845e+00 2.867061e+03
1.900000e+02 -7.500000e+01 3.776109e+00 2.952660e+03
1.950000e+02 -7.500000e+01 3.799549e+00 2.975413e+03
2.000000e+02 -7.500000e+01 3.748748e+00 2.926112e+03
2.050000e+02 -7.500000e+01 3.813265e+00 2.988730e+03
2.100000e+02 -7.500000e+01 3.833425e+00 3.008309e+03
2.150000e+02 -7.500000e+01 3.903165e+00 3.076083e+03
2.200000e+02 -7.500000e+01 3.914514e+00 3.087119e+03
2.250000e+02 -7.500000e+01 4.021101e+00 3.190845e+03
2.300000e+02 -7.500000e+01 3.975408e+00 3.146361e+03
2.350000e+02 -7.500000e+01 3.934185e+00 3.106251e+03
2.400000e+02 -7.500000e+01 4.284474e+00 3.447737e+03
2.450000e+02 -7.500000e+01 4.694532e+00 3.849105e+03
2.500000e+02 -7.500000e+01 4.284263e+00 3.447530e+03
2.550000e+02 -7.500000e+01 4.091301e+00 3.259239e+03
2.600000e+02 -7.500000e+01 4.147844e+00 3.314370e+03
2.650000e+02 -7.500000e+01 4.167786e+00 3.333823e+03
2.700000e+02 -7.500000e+01 4.099841e+00 3.267564e+03
2.750000e+02 -7.500000e+01 4.166153e+00 3.332229e+03
2.800000e+02 -7.500000e+01 4.280349e+00 3.443707e+03
2.850000e+02 -7.500000e+01 4.531818e+00 3.689657e+03
2.900000e+02 -7.500000e+01 4.267120e+00 3.430786e+03
2.950000e+02 -7.500000e+01 4.426076e+00 3.586162e+03
3.000000e+02 -7.500000e+01 4.772625e+00 3.925708e+03
3.050000e+02 -7.500000e+01 4.394517e+00 3.555294e+03
3.100000e+02 -7.500000e+01 4.112617e+00 3.280018e+03
3.150000e+02 -7.500000e+01 4.289167e+00 3.452321e+03
3.200000e+02 -7.500000e+01 4.250548e+00 3.414602e+03
3.250000e+02 -7.500000e+01 4.325542e+00 3.487863e+03
3.300000e+02 -7.500000e+01 4.394847e+00 3.555616e+03
3.350000e+02 -7.500000e+01 4.180423e+00 3.346152e+03
3.400000e+02 -7.500000e+01 4.197028e+00 3.362356e+03
3.450000e+02 -7.500000e+01 4.609499e+00 3.765752e+03
3.500000e+02 -7.500000e+01 4.656288e+00 3.811609e+03
3.550000e+02 -7.500000e+01 4.284780e+00 3.448036e+03
0.000000e+00 -7.000000e+01 4.037969e+00 3.207274e+03
5.000000e+00 -7.000000e+01 4.011137e+00 3.181143e+03
1.000000e+01 -7.000000e+01 3.942308e+00 3.114153e+03
1.500000e+01 -7.000000e+01 3.971055e+00 3.142124e+03
2.000000e+01 -7.000000e+01 3.875388e+00 3.049082e+03
2.500000e+01 -7.000000e+01 3.897228e+00 3.070311e+03
3.000000e+01 -7.000000e+01 3.755248e+00 2.932418e+03
3.500000e+01 -7.000000e+01 3.834985e+00 3.009824e+03
4.000000e+01 -7.000000e+01 3.784444e+00 2.960749e+03
4.500000e+01 -7.000000e+01 3.722042e+00 2.900211e+03
5.000000e+01 -7.000000e+01 3.970244e+00 3.141334e+03
5.500000e+01 -7.000000e+01 3.614577e+00 2.796098e+03
6.000000e+01 -7.000000e+01 3.590711e+00 2.773003e+03
6.500000e+01 -7.000000e+01 3.541999e+00 2.725893e+03
7.000000e+01 -7.000000e+01 3.502981e+00 2.688191e+03
7.500000e+01 -7.000000e+01 3.511661e+00 2.696575e+03
8.000000e+01 -7.000000e+01 3.837674e+00 3.012436e+03
8.500000e+01 -7.000000e+01 3.479527e+00 2.665540e+03
9.000000e+01 -7.000000e+01 3.462291e+00 2.648902e+03
9.500000e+01 -7.000000e+01 3.491281e+00 2.676890e+03
1.000000e+02 -7.000000e+01 3.442177e+00 2.629491e+03
1.050000e+02 -7.000000e+01 3.650241e+00 2.830629e+03
1.100000e+02 -7.000000e+01 3.508742e+00 2.693755e+03
1.150000e+02 -7.000000e+01 3.549698e+00 2.733336e+03
1.200000e+02 -7.000000e+01 3.469413e+00 2.655776e+03
1.250000e+02 -7.000000e+01 3.641547e+00 2.822209e+03
1.300000e+02 -7.000000e+01 3.755902e+00 2.933053e+03
1.350000e+02 -7.000000e+01 3.681893e+00 2.861293e+03
1.400000e+02 -7.000000e+01 3.521403e+00 2.705988e+03
1.450000e+02 -7.000000e+01 3.489649e+00 2.675314e+03
1.500000e+02 -7.000000e+01 3.465567e+00 2.652064e+03
1.550000e+02 -7.000000e+01 3.518200e+00 2.702893e+03
1.600000e+02 -7.000000e+01 3.541669e+00 2.725575e+03
1.650000e+02 -7.000000e+01 3.528631e+00 2.712973e+03
1.700000e+02 -7.000000e+01 3.567812e+00 2.750852e+03
1.750000e+02 -7.000000e+01 3.566057e+00 2.749155e+03
1.800000e+02 -7.000000e+01 3.753375e+00 2.930601e+03
1.850000e+02 -7.000000e+01 3.688138e+00 2.867344e+03
1.900000e+02 -7.000000e+01 3.630989e+00 2.811986e+03
1.950000e+02 -7.000000e+01 3.819657e+00 2.994937e+03
2.000000e+02 -7.000000e+01 3.778232e+00 2.954720e+03
2.050000e+02 -7.000000e+01 3.766052e+00 2.942901e+03
2.100000e+02 -7.000000e+01 3.921556e+00 3.093968e+03
2.150000e+02 -7.000000e+01 3.952468e+00 3.124037e+03
2.200000e+02 -7.000000e+01 3.960841e+00 3.132185e+03
2.250000e+02 -7.000000e+01 4.324129e+00 3.486481e+03
2.300000e+02 -7.000000e+01 4.324298e+00 3.486647e+03
2.350000e+02 -7.000000e+01 4.026922e+00 3.196514e+03
2.400000e+02 -7.000000e+01 4.103590e+00 3.271218e+03
2.450000e+02 -7.000000e+01 4.120225e+00 3.287436e+03
2.500000e+02 -7.000000e+01 4.170180e+00 3.336158e+03
2.550000e+02 -7.000000e+01 4.658859e+00 3.814129e+03
2.600000e+02 -7.000000e+01 4.448072e+00 3.607682e+03
2.650000e+02 -7.000000e+01 4.426555e+00 3.586630e+03
2.700000e+02 -7.000000e+01 4.449302e+00 3.608886e+03
2.750000e+02 -7.000000e+01 4.256255e+00 3.420175e+03
2.800000e+02 -7.000000e+01 4.319132e+00 3.481599e+03
2.850000e+02 -7.000000e+01 4.259813e+00 3.423650e+03
2.900000e+02 -7.000000e+01 4.278215e+00 3.441622e+03
2.950000e+02 -7.000000e+01 4.302124e+00 3.464980e+03
3.000000e+02 -7.000000e+01 4.533182e+00 3.690993e+03
3.050000e+02 -7.000000e+01 4.816531e+00 3.968797e+03
3.100000e+02 -7.000000e+01 4.609843e+00 3.766088e+03
3.150000e+02 -7.000000e+01 4.446447e+00 3.606092e+03
3.200000e+02 -7.000000e+01 4.274979e+00 3.438461e+03
3.250000e+02 -7.000000e+01 4.287597e+00 3.450787e+03
3.300000e+02 -7.000000e+01 4.623755e+00 3.779722e+03
3.350000e+02 -7.000000e+01 4.292517e+00 3.455593e+03
3.400000e+02 -7.000000e+01 4.242244e+00 3.406494e+03
3.450000e+02 -7.000000e+01 4.527961e+00 3.685880e+03
3.500000e+02 -7.000000e+01 4.459482e+00 3.618847e+03
3.550000e+02 -7.000000e+01 4.686349e+00 3.841081e+03
0.000000e+00 -6.500000e+01 4.199937e+00 3.365195e+03
5.000000e+00 -6.500000e+01 4.129356e+00 3.296339e+03
1.000000e+01 -6.500000e+01 4.447110e+00 3.606741e+03
1.500000e+01 -6.500000e+01 3.874302e+00 3.048026e+03
2.000000e+01 -6.500000e+01 3.877105e+00 3.050750e+03
2.500000e+01 -6.500000e+01 3.800163e+00 2.976008e+03
3.000000e+01 -6.500000e+01 3.787656e+00 2.963868e+03
3.500000e+01 -6.500000e+01 3.967554e+00 3.138717e+03
4.000000e+01 -6.500000e+01 3.653937e+00 2.834208e+03
4.500000e+01 -6.500000e+01 3.610965e+00 2.792602e+03
5.000000e+01 -6.500000e+01 3.613039e+00 2.794610e+03
5.500000e+01 -6.500000e+01 3.548284e+00 2.731970e+03
6.000000e+01 -6.500000e+01 3.578566e+00 2.761254e+03
6.500000e+01 -6.500000e+01 3.570605e+00 2.753553e+03
7.000000e+01 -6.500000e+01 3.437369e+00 2.624853e+03
7.500000e+01 -6.500000e+01 3.631134e+00 2.812127e+03
8.000000e+01 -6.500000e+01 3.469834e+00 2.656182e+03
8.500000e+01 -6.500000e+01 3.764492e+00 2.941387e+03
9.000000e+01 -6.500000e+01 3.478329e+00 2.664383e+03
9.500000e+01 -6.500000e+01 3.383994e+00 2.573390e+03
1.000000e+02 -6.500000e+01 3.430419e+00 2.618149e+03
1.050000e+02 -6.500000e+01 3.358817e+00 2.549134e+03
1.100000e+02 -6.500000e+01 3.494974e+00 2.680456e+03
1.150000e+02 -6.500000e+01 3.299603e+00 2.492142e+03
1.200000e+02 -6.500000e+01 3.346792e+00 2.537554e+03
1.250000e+02 -6.500000e+01 3.349228e+00 2.539900e+03
1.300000e+02 -6.500000e+01 3.304720e+00 2.497063e+03
1.350000e+02 -6.500000e+01 3.438600e+00 2.626040e+03
1.400000e+02 -6.500000e+01 3.498097e+00 2.683472e+03
1.450000e+02 -6.500000e+01 3.468923e+00 2.655303e+03
1.500000e+02 -6.500000e+01 3.967370e+00 3.138537e+03
1.550000e+02 -6.500000e+01 3.439040e+00 2.626465e+03
1.600000e+02 -6.500000e+01 3.420242e+00 2.608333e+03
1.650000e+02 -6.500000e+01 3.558031e+00 2.741394e+03
1.700000e+02 -6.500000e+01 3.604360e+00 2.786209e+03
1.750000e+02 -6.500000e+01 3.541005e+00 2.724933e+03
1.800000e+02 -6.500000e+01 3.541209e+00 2.725130e+03
1.850000e+02 -6.500000e+01 3.659703e+00 2.839794e+03
1.900000e+02 -6.500000e+01 3.674513e+00 2.854141e+03
1.950000e+02 -6.500000e+01 3.695630e+00 2.874606e+03
2.000000e+02 -6.500000e+01 3.923191e+00 3.095558e+03
2.050000e+02 -6.500000e+01 3.746208e+00 2.923648e+03
2.100000e+02 -6.500000e+01 3.969617e+00 3.140724e+03
2.150000e+02 -6.500000e+01 3.957488e+00 3.128922e+03
2.200000e+02 -6.500000e+01 3.864686e+00 3.038681e+03
2.250000e+02 -6.500000e+01 3.905867e+00 3.078711e+03
2.300000e+02 -6.500000e+01 4.151472e+00 3.317909e+03
2.350000e+02 -6.500000e+01 3.997876e+00 3.168231e+03
2.400000e+02 -6.500000e+01 4.268708e+00 3.432337e+03
2.450000e+02 -6.500000e+01 4.277144e+00 3.440576e+03
2.500000e+02 -6.500000e+01 4.194945e+00 3.360323e+03
2.550000e+02 -6.500000e+01 4.411686e+00 3.572085e+03
2.600000e+02 -6.500000e+01 4.665567e+00 3.820706e+03
2.650000e+02 -6.500000e+01 4.634025e+00 3.789787e+03
2.700000e+02 -6.500000e+01 4.424893e+00 3.585004e+03
2.750000e+02 -6.500000e+01 4.412333e+00 3.572718e+03
2.800000e+02 -6.500000e+01 4.776180e+00 3.929196e+03
2.850000e+02 -6.500000e+01 5.273278e+00 4.417828e+03
2.900000e+02 -6.500000e+01 4.424575e+00 3.584694e+03
2.950000e+02 -6.500000e+01 4.424188e+00 3.584315e+03
3.000000e+02 -6.500000e+01 4.519949e+00 3.678036e+03
3.050000e+02 -6.500000e+01 4.797386e+00 3.950006e+03
3.100000e+02 -6.500000e+01 5.261824e+00 4.406552e+03
3.150000e+02 -6.500000e+01 4.444437e+00 3.604126e+03
3.200000e+02 -6.500000e+01 4.441599e+00 3.601349e+03
3.250000e+02 -6.500000e+01 4.389498e+00 3.550386e+03
3.300000e+02 -6.500000e+01 4.283174e+00 3.446467e+03
3.350000e+02 -6.500000e+01 4.393269e+00 3.554073e+03
3.400000e+02 -6.500000e+01 4.418390e+00 3.578644e+03
3.450000e+02 -6.500000e+01 4.314965e+00 3.477527e+03
3.500000e+02 -6.500000e+01 4.243614e+00 3.407831e+03
3.550000e+02 -6.500000e+01 4.079066e+00 3.247314e+03
0.000000e+00 -6.000000e+01 4.285057e+00 3.448306e+03
5.000000e+00 -6.000000e+01 4.054272e+00 3.223155e+03
1.000000e+01 -6.000000e+01 4.516116e+00 3.674282e+03
1.500000e+01 -6.000000e+01 3.939993e+00 3.111900e+03
2.000000e+01 -6.000000e+01 3.871497e+00 3.045299e+03
2.500000e+01 -6.000000e+01 3.829778e+00 3.004767e+03
3.000000e+01 -6.000000e+01 3.759673e+00 2.936711e+03
3.500000e+01 -6.000000e+01 3.666981e+00 2.846844e+03
4.000000e+01 -6.000000e+01 3.826794e+00 3.001869e+03
4.500000e+01 -6.000000e+01 3.967658e+00 3.138818e+03
5.000000e+01 -6.000000e+01 4.018595e+00 3.188405e+03
5.500000e+01 -6.000000e+01 3.538163e+00 2.722186e+03
6.000000e+01 -6.000000e+01 3.466078e+00 2.652556e+03
6.500000e+01 -6.000000e+01 3.489370e+00 2.675044e+03
7.000000e+01 -6.000000e+01 3.514700e+00 2.699512e+03
7.500000e+01 -6.000000e+01 3.396227e+00 2.585179e+03
8.000000e+01 -6.000000e+01 3.468118e+00 2.654526e+03
8.500000e+01 -6.000000e+01 3.344961e+00 2.535792e+03
9.000000e+01 -6.000000e+01 3.631679e+00 2.812654e+03
9.500000e+01 -6.000000e+01 3.301396e+00 2.493866e+03
1.000000e+02 -6.000000e+01 3.271575e+00 2.465190e+03
1.050000e+02 -6.000000e+01 3.295409e+00 2.488107e+03
1.100000e+02 -6.000000e+01 3.312689e+00 2.504729e+03
1.150000e+02 -6.000000e+01 3.265167e+00 2.459031e+03
1.200000e+02 -6.000000e+01 3.326220e+00 2.517751e+03
1.250000e+02 -6.000000e+01 3.275648e+00 2.469106e+03
1.300000e+02 -6.000000e+01 3.463868e+00 2.650423e+03
1.350000e+02 -6.000000e+01 3.388366e+00 2.577603e+03
1.400000e+02 -6.000000e+01 3.279622e+00 2.472926e+03
1.450000e+02 -6.000000e+01 3.289620e+00 2.482540e+03
1.500000e+02 -6.000000e+01 3.394312e+00 2.583334e+03
1.550000e+02 -6.000000e+01 3.794277e+00 2.970294e+03
1.600000e+02 -6.000000e+01 3.473452e+00 2.659675e+03
1.650000e+02 -6.000000e+01 3.732969e+00 2.910808e+03
1.700000e+02 -6.000000e+01 3.486063e+00 2.671851e+03
1.750000e+02 -6.000000e+01 3.473657e+00 2.659873e+03
1.800000e+02 -6.000000e+01 3.587484e+00 2.769880e+03
1.850000e+02 -6.000000e+01 3.518918e+00 2.703587e+03
1.900000e+02 -6.000000e+01 3.620665e+00 2.801991e+03
1.950000e+02 -6.000000e+01 3.794114e+00 2.970136e+03
2.000000e+02 -6.000000e+01 3.661257e+00 2.841299e+03
2.050000e+02 -6.000000e+01 3.774325e+00 2.950929e+03
2.100000e+02 -6.000000e+01 3.775953e+00 2.952509e+03
2.150000e+02 -6.000000e+01 3.977649e+00 3.148542e+03
2.200000e+02 -6.000000e+01 4.049121e+00 3.218137e+03
2.250000e+02 -6.000000e+01 3.955815e+00 3.127294e+03
2.300000e+02 -6.000000e+01 4.089511e+00 3.257494e+03
2.350000e+02 -6.000000e+01 4.131731e+00 3.298655e+03
2.400000e+02 -6.000000e+01 4.266147e+00 3.429836e+03
2.450000e+02 -6.000000e+01 4.337067e+00 3.499126e+03
2.500000e+02 -6.000000e+01 4.461965e+00 3.621277e+03
2.550000e+02 -6.000000e+01 4.344326e+00 3.506221e+03
2.600000e+02 -6.000000e+01 4.612611e+00 3.768801e+03
2.650000e+02 -6.000000e+01 4.393131e+00 3.553938e+03
2.700000e+02 -6.000000e+01 4.484483e+00 3.643315e+03
2.750000e+02 -6.000000e+01 4.577572e+00 3.734470e+03
2.800000e+02 -6.000000e+01 5.086827e+00 4.234364e+03
2.850000e+02 -6.000000e+01 4.757271e+00 3.910643e+03
2.900000e+02 -6.000000e+01 4.814798e+00 3.967096e+03
2.950000e+02 -6.000000e+01 4.584969e+00 3.741717e+03
3.000000e+02 -6.000000e+01 4.737179e+00 3.890932e+03
3.050000e+02 -6.000000e+01 4.601768e+00 3.758176e+03
3.100000e+02 -6.000000e+01 5.139481e+00 4.286153e+03
3.150000e+02 -6.000000e+01 4.547253e+00 3.704773e+03
3.200000e+02 -6.000000e+01 4.610538e+00 3.766770e+03
3.250000e+02 -6.000000e+01 4.562911e+00 3.720109e+03
3.300000e+02 -6.000000e+01 4.472194e+00 3.631287e+03
3.350000e+02 -6.000000e+01 5.298616e+00 4.442776e+03
3.400000e+02 -6.000000e+01 4.981521e+00 4.130841e+03
3.450000e+02 -6.000000e+01 4.516780e+00 3.674933e+03
3.500000e+02 -6.000000e+01 4.715611e+00 3.869777e+03
3.550000e+02 -6.000000e+01 4.408380e+00 3.568852e+03
0.000000e+00 -5.500000e+01 1.941142e+01 1.849581e+04
5.000000e+00 -5.500000e+01 2.013118e+01 1.921476e+04
1.000000e+01 -5.500000e+01 2.029394e+01 1.937735e+04
1.500000e+01 -5.500000e+01 1.991719e+01 1.900101e+04
2.000000e+01 -5.500000e+01 1.902276e+01 1.810762e+04
2.500000e+01 -5.500000e+01 1.764270e+01 1.672936e+04
3.000000e+01 -5.500000e+01 1.579562e+01 1.488519e+04
3.500000e+01 -5.500000e+01 1.336600e+01 1.246062e+04
4.000000e+01 -5.500000e+01 6.797464e+00 5.923643e+03
4.500000e+01 -5.500000e+01 5.613267e+00 4.752872e+03
5.000000e+01 -5.500000e+01 3.682744e+00 2.862117e+03
5.500000e+01 -5.500000e+01 3.442774e+00 2.630067e+03
6.000000e+01 -5.500000e+01 3.693472e+00 2.872514e+03
6.500000e+01 -5.500000e+01 3.433369e+00 2.620994e+03
7.000000e+01 -5.500000e+01 3.324621e+00 2.516212e+03
7.500000e+01 -5.500000e+01 3.426290e+00 2.614166e+03
8.000000e+01 -5.500000e+01 3.280314e+00 2.473591e+03
8.500000e+01 -5.500000e+01 3.269396e+00 2.463096e+03
9.000000e+01 -5.500000e+01 3.232628e+00 2.427770e+03
9.500000e+01 -5.500000e+01 3.240027e+00 2.434876e+03
1.000000e+02 -5.500000e+01 3.225066e+00 2.420508e+03
1.050000e+02 -5.500000e+01 3.191830e+00 2.388608e+03
1.100000e+02 -5.500000e+01 3.180244e+00 2.377494e+03
1.150000e+02 -5.500000e+01 3.154218e+00 2.352541e+03
1.200000e+02 -5.500000e+01 3.210622e+00 2.406642e+03
1.250000e+02 -5.500000e+01 3.516395e+00 2.701149e+03
1.300000e+02 -5.500000e+01 3.234810e+00 2.429866e+03
1.350000e+02 -5.500000e+01 3.635167e+00 2.816031e+03
1.400000e+02 -5.500000e+01 3.190198e+00 2.387042e+03
1.450000e+02 -5.500000e+01 3.347720e+00 2.538448e+03
1.500000e+02 -5.500000e+01 3.220926e+00 2.416534e+03
1.550000e+02 -5.500000e+01 3.310802e+00 2.502915e+03
1.600000e+02 -5.500000e+01 3.309644e+00 2.501800e+03
1.650000e+02 -5.500000e+01 3.386538e+00 2.575842e+03
1.700000e+02 -5.500000e+01 3.569995e+00 2.752964e+03
1.750000e+02 -5.500000e+01 3.553514e+00 2.737026e+03
1.800000e+02 -5.500000e+01 3.483923e+00 2.669785e+03
1.850000e+02 -5.500000e+01 3.536282e+00 2.720367e+03
1.900000e+02 -5.500000e+01 3.674560e+00 2.854187e+03
1.950000e+02 -5.500000e+01 3.728021e+00 2.906009e+03
2.000000e+02 -5.500000e+01 3.679972e+00 2.859431e+03
2.050000e+02 -5.500000e+01 3.836235e+00 3.011039e+03
2.100000e+02 -5.500000e+01 3.783878e+00 2.960200e+03
2.150000e+02 -5.500000e+01 3.871281e+00 3.045090e+03
2.200000e+02 -5.500000e+01 3.917493e+00 3.090016e+03
2.250000e+02 -5.500000e+01 3.936724e+00 3.108721e+03
2.300000e+02 -5.500000e+01 4.092116e+00 3.260033e+03
2.350000e+02 -5.500000e+01 4.243884e+00 3.408095e+03
2.400000e+02 -5.500000e+01 4.246183e+00 3.410340e+03
2.450000e+02 -5.500000e+01 4.241026e+00 3.405304e+03
2.500000e+02 -5.500000e+01 4.447382e+00 3.607007e+03
2.550000e+02 -5.500000e+01 4.491802e+00 3.650480e+03
2.600000e+02 -5.500000e+01 4.546593e+00 3.704127e+03
2.650000e+02 -5.500000e+01 4.626035e+00 3.781956e+03
2.700000e+02 -5.500000e+01 4.587666e+00 3.744359e+03
2.750000e+02 -5.500000e+01 4.548343e+00 3.705840e+03
2.800000e+02 -5.500000e+01 4.609487e+00 3.765739e+03
2.850000e+02 -5.500000e+01 4.762072e+00 3.915354e+03