TITLE="Cutoff Rigidity (Gridless Shells)"
VARIABLES="lon_deg","lat_deg","Rc_GV","Emin_MeV"
ZONE T="alt_km=400" I=72 J=37 F=POINT
0.000000e+00 -9.000000e+01 4.333114e-02 1.000000e+00
5.000000e+00 -9.000000e+01 4.333114e-02 1.000000e+00
1.000000e+01 -9.000000e+01 4.333114e-02 1.000000e+00
1.500000e+01 -9.000000e+01 4.333114e-02 1.000000e+00
2.000000e+01 -9.000000e+01 4.333114e-02 1.000000e+00
2.500000e+01 -9.000000e+01 4.333114e-02 1.000000e+00
3.000000e+01 -9.000000e+01 4.333114e-02 1.000000e+00
3.500000e+01 -9.000000e+01 4.333114e-02 1.000000e+00
4.000000e+01 -9.000000e+01 4.333114e-02 1.000000e+00
4.500000e+01 -9.000000e+01 4.333114e-02 1.000000e+00
5.000000e+01 -9.000000e+01 4.333114e-02 1.000000e+00
5.500000e+01 -9.000000e+01 4.333114e-02 1.000000e+00
6.000000e+01 -9.000000e+01 4.333114e-02 1.000000e+00
6.500000e+01 -9.000000e+01 4.333114e-02 1.000000e+00
7.000000e+01 -9.000000e+01 4.333114e-02 1.000000e+00
7.500000e+01 -9.000000e+01 4.333114e-02 1.000000e+00
8.000000e+01 -9.000000e+01 4.333114e-02 1.000000e+00
8.500000e+01 -9.000000e+01 4.333114e-02 1.000000e+00
9.000000e+01 -9.000000e+01 4.333114e-02 1.000000e+00
9.500000e+01 -9.000000e+01 4.333114e-02 1.000000e+00
1.000000e+02 -9.000000e+01 4.333114e-02 1.000000e+00
1.050000e+02 -9.000000e+01 4.333114e-02 1.000000e+00
1.100000e+02 -9.000000e+01 4.333114e-02 1.000000e+00
1.150000e+02 -9.000000e+01 4.333114e-02 1.000000e+00
1.200000e+02 -9.000000e+01 4.333114e-02 1.000000e+00
1.250000e+02 -9.000000e+01 4.333114e-02 1.000000e+00
1.300000e+02 -9.000000e+01 4.333114e-02 1.000000e+00
1.350000e+02 -9.000000e+01 4.333114e-02 1.000000e+00
1.400000e+02 -9.000000e+01 4.333114e-02 1.000000e+00
1.450000e+02 -9.000000e+01 4.333114e-02 1.000000e+00
1.500000e+02 -9.000000e+01 4.333114e-02 1.000000e+00
1.550000e+02 -9.000000e+01 4.333114e-02 1.000000e+00
1.600000e+02 -9.000000e+01 4.333114e-02 1.000000e+00
1.650000e+02 -9.000000e+01 4.333114e-02 1.000000e+00
1.700000e+02 -9.000000e+01 4.333114e-02 1.000000e+00
1.750000e+02 -9.000000e+01 4.333114e-02 1.000000e+00
1.800000e+02 -9.000000e+01 4.333114e-02 1.000000e+00
1.850000e+02 -9.000000e+01 4.333114e-02 1.000000e+00
1.900000e+02 -9.000000e+01 4.333114e-02 1.000000e+00
1.950000e+02 -9.000000e+01 4.333114e-02 1.000000e+00
2.000000e+02 -9.000000e+01 4.333114e-02 1.000000e+00
2.050000e+02 -9.000000e+01 4.333114e-02 1.000000e+00
2.100000e+02 -9.000000e+01 4.333114e-02 1.000000e+00
2.150000e+02 -9.000000e+01 4.333114e-02 1.000000e+00
2.200000e+02 -9.000000e+01 4.333114e-02 1.000000e+00
2.250000e+02 -9.000000e+01 4.333114e-02 1.000000e+00
2.300000e+02 -9.000000e+01 4.333114e-02 1.000000e+00
2.350000e+02 -9.000000e+01 4.333114e-02 1.000000e+00
2.400000e+02 -9.000000e+01 4.333114e-02 1.000000e+00
2.450000e+02 -9.000000e+01 4.333114e-02 1.000000e+00
2.500000e+02 -9.000000e+01 4.333114e-02 1.000000e+00
2.550000e+02 -9.000000e+01 4.333114e-02 1.000000e+00
2.600000e+02 -9.000000e+01 4.333114e-02 1.000000e+00
2.650000e+02 -9.000000e+01 4.333114e-02 1.000000e+00
2.700000e+02 -9.000000e+01 4.333114e-02 1.000000e+00
2.750000e+02 -9.000000e+01 4.333114e-02 1.000000e+00
2.800000e+02 -9.000000e+01 4.333114e-02 1.000000e+00
2.850000e+02 -9.000000e+01 4.333114e-02 1.000000e+00
2.900000e+02 -9.000000e+01 4.333114e-02 1.000000e+00
2.950000e+02 -9.000000e+01 4.333114e-02 1.000000e+00
3.000000e+02 -9.000000e+01 4.333114e-02 1.000000e+00
3.050000e+02 -9.000000e+01 4.333114e-02 1.000000e+00
3.100000e+02 -9.000000e+01 4.333114e-02 1.000000e+00
3.150000e+02 -9.000000e+01 4.333114e-02 1.000000e+00
3.200000e+02 -9.000000e+01 4.333114e-02 1.000000e+00
3.250000e+02 -9.000000e+01 4.333114e-02 1.000000e+00
3.300000e+02 -9.000000e+01 4.333114e-02 1.000000e+00
3.350000e+02 -9.000000e+01 4.333114e-02 1.000000e+00
3.400000e+02 -9.000000e+01 4.333114e-02 1.000000e+00
3.450000e+02 -9.000000e+01 4.333114e-02 1.000000e+00
3.500000e+02 -9.000000e+01 4.333114e-02 1.000000e+00
3.550000e+02 -9.000000e+01 4.333114e-02 1.000000e+00
0.000000e+00 -8.500000e+01 4.333114e-02 1.000000e+00
5.000000e+00 -8.500000e+01 4.333114e-02 1.000000e+00
1.000000e+01 -8.500000e+01 4.333114e-02 1.000000e+00
1.500000e+01 -8.500000e+01 4.333114e-02 1.000000e+00
2.000000e+01 -8.500000e+01 4.333114e-02 1.000000e+00
2.500000e+01 -8.500000e+01 4.333114e-02 1.000000e+00
3.000000e+01 -8.500000e+01 4.333114e-02 1.000000e+00
3.500000e+01 -8.500000e+01 4.333114e-02 1.000000e+00
4.000000e+01 -8.500000e+01 4.333114e-02 1.000000e+00
4.500000e+01 -8.500000e+01 4.333114e-02 1.000000e+00
5.000000e+01 -8.500000e+01 4.333114e-02 1.000000e+00
5.500000e+01 -8.500000e+01 4.333114e-02 1.000000e+00
6.000000e+01 -8.500000e+01 4.333114e-02 1.000000e+00
6.500000e+01 -8.500000e+01 4.333114e-02 1.000000e+00
7.000000e+01 -8.500000e+01 4.333114e-02 1.000000e+00
7.500000e+01 -8.500000e+01 4.333114e-02 1.000000e+00
8.000000e+01 -8.500000e+01 4.333114e-02 1.000000e+00
8.500000e+01 -8.500000e+01 4.333114e-02 1.000000e+00
9.000000e+01 -8.500000e+01 4.333114e-02 1.000000e+00
9.500000e+01 -8.500000e+01 4.333114e-02 1.000000e+00
1.000000e+02 -8.500000e+01 4.333114e-02 1.000000e+00
1.050000e+02 -8.500000e+01 4.333114e-02 1.000000e+00
1.100000e+02 -8.500000e+01 4.333114e-02 1.000000e+00
1.150000e+02 -8.500000e+01 4.333114e-02 1.000000e+00
1.200000e+02 -8.500000e+01 4.333114e-02 1.000000e+00
1.250000e+02 -8.500000e+01 4.333114e-02 1.000000e+00
1.300000e+02 -8.500000e+01 4.333114e-02 1.000000e+00
1.350000e+02 -8.500000e+01 4.333114e-02 1.000000e+00
1.400000e+02 -8.500000e+01 4.333114e-02 1.000000e+00
1.450000e+02 -8.500000e+01 4.333114e-02 1.000000e+00
1.500000e+02 -8.500000e+01 4.333114e-02 1.000000e+00
1.550000e+02 -8.500000e+01 4.333114e-02 1.000000e+00
1.600000e+02 -8.500000e+01 4.333114e-02 1.000000e+00
1.650000e+02 -8.500000e+01 4.333114e-02 1.000000e+00
1.700000e+02 -8.500000e+01 4.333114e-02 1.000000e+00
1.750000e+02 -8.500000e+01 4.333114e-02 1.000000e+00
1.800000e+02 -8.500000e+01 4.333114e-02 1.000000e+00
1.850000e+02 -8.500000e+01 4.333114e-02 1.000000e+00
1.900000e+02 -8.500000e+01 4.333114e-02 1.000000e+00
1.950000e+02 -8.500000e+01 4.333114e-02 1.000000e+00
2.000000e+02 -8.500000e+01 4.333114e-02 1.000000e+00
2.050000e+02 -8.500000e+01 4.333114e-02 1.000000e+00
2.100000e+02 -8.500000e+01 4.333114e-02 1.000000e+00
2.150000e+02 -8.500000e+01 4.333114e-02 1.000000e+00
2.200000e+02 -8.500000e+01 4.333114e-02 1.000000e+00
2.250000e+02 -8.500000e+01 4.333114e-02 1.000000e+00
2.300000e+02 -8.500000e+01 4.333114e-02 1.000000e+00
2.350000e+02 -8.500000e+01 4.333114e-02 1.000000e+00
2.400000e+02 -8.500000e+01 4.333114e-02 1.000000e+00
2.450000e+02 -8.500000e+01 4.333114e-02 1.000000e+00
2.500000e+02 -8.500000e+01 4.333114e-02 1.000000e+00
2.550000e+02 -8.500000e+01 4.333114e-02 1.000000e+00
2.600000e+02 -8.500000e+01 4.333114e-02 1.000000e+00
2.650000e+02 -8.500000e+01 4.333114e-02 1.000000e+00
2.700000e+02 -8.500000e+01 4.333114e-02 1.000000e+00
2.750000e+02 -8.500000e+01 4.333114e-02 1.000000e+00
2.800000e+02 -8.500000e+01 4.333114e-02 1.000000e+00
2.850000e+02 -8.500000e+01 4.333114e-02 1.000000e+00
2.900000e+02 -8.500000e+01 4.333114e-02 1.000000e+00
2.950000e+02 -8.500000e+01 4.333114e-02 1.000000e+00
3.000000e+02 -8.500000e+01 4.333114e-02 1.000000e+00
3.050000e+02 -8.500000e+01 4.333114e-02 1.000000e+00
3.100000e+02 -8.500000e+01 4.333114e-02 1.000000e+00
3.150000e+02 -8.500000e+01 4.333114e-02 1.000000e+00
3.200000e+02 -8.500000e+01 4.333114e-02 1.000000e+00
3.250000e+02 -8.500000e+01 4.333114e-02 1.000000e+00
3.300000e+02 -8.500000e+01 4.333114e-02 1.000000e+00
3.350000e+02 -8.500000e+01 4.333114e-02 1.000000e+00
3.400000e+02 -8.500000e+01 4.333114e-02 1.000000e+00
3.450000e+02 -8.500000e+01 4.333114e-02 1.000000e+00
3.500000e+02 -8.500000e+01 4.333114e-02 1.000000e+00
3.550000e+02 -8.500000e+01 4.333114e-02 1.000000e+00
0.000000e+00 -8.000000e+01 4.333114e-02 1.000000e+00
5.000000e+00 -8.000000e+01 4.333114e-02 1.000000e+00
1.000000e+01 -8.000000e+01 4.333114e-02 1.000000e+00
1.500000e+01 -8.000000e+01 4.333114e-02 1.000000e+00
2.000000e+01 -8.000000e+01 4.333114e-02 1.000000e+00
2.500000e+01 -8.000000e+01 4.333114e-02 1.000000e+00
3.000000e+01 -8.000000e+01 4.333114e-02 1.000000e+00
3.500000e+01 -8.000000e+01 4.333114e-02 1.000000e+00
4.000000e+01 -8.000000e+01 4.333114e-02 1.000000e+00
4.500000e+01 -8.000000e+01 4.333114e-02 1.000000e+00
5.000000e+01 -8.000000e+01 4.333114e-02 1.000000e+00
5.500000e+01 -8.000000e+01 4.333114e-02 1.000000e+00
6.000000e+01 -8.000000e+01 4.333114e-02 1.000000e+00
6.500000e+01 -8.000000e+01 4.333114e-02 1.000000e+00
7.000000e+01 -8.000000e+01 4.333114e-02 1.000000e+00
7.500000e+01 -8.000000e+01 4.333114e-02 1.000000e+00
8.000000e+01 -8.000000e+01 4.333114e-02 1.000000e+00
8.500000e+01 -8.000000e+01 4.333114e-02 1.000000e+00
9.000000e+01 -8.000000e+01 4.333114e-02 1.000000e+00
9.500000e+01 -8.000000e+01 4.333114e-02 1.000000e+00
1.000000e+02 -8.000000e+01 4.333114e-02 1.000000e+00
1.050000e+02 -8.000000e+01 4.333114e-02 1.000000e+00
1.100000e+02 -8.000000e+01 4.333114e-02 1.000000e+00
1.150000e+02 -8.000000e+01 4.333114e-02 1.000000e+00
1.200000e+02 -8.000000e+01 4.333114e-02 1.000000e+00
1.250000e+02 -8.000000e+01 4.333114e-02 1.000000e+00
1.300000e+02 -8.000000e+01 4.333114e-02 1.000000e+00
1.350000e+02 -8.000000e+01 4.333114e-02 1.000000e+00
1.400000e+02 -8.000000e+01 4.333114e-02 1.000000e+00
1.450000e+02 -8.000000e+01 4.333114e-02 1.000000e+00
1.500000e+02 -8.000000e+01 4.333114e-02 1.000000e+00
1.550000e+02 -8.000000e+01 4.333114e-02 1.000000e+00
1.600000e+02 -8.000000e+01 4.333114e-02 1.000000e+00
1.650000e+02 -8.000000e+01 4.333114e-02 1.000000e+00
1.700000e+02 -8.000000e+01 4.333114e-02 1.000000e+00
1.750000e+02 -8.000000e+01 4.333114e-02 1.000000e+00
1.800000e+02 -8.000000e+01 4.333114e-02 1.000000e+00
1.850000e+02 -8.000000e+01 4.333114e-02 1.000000e+00
1.900000e+02 -8.000000e+01 4.333114e-02 1.000000e+00
1.950000e+02 -8.000000e+01 4.333114e-02 1.000000e+00
2.000000e+02 -8.000000e+01 4.333114e-02 1.000000e+00
2.050000e+02 -8.000000e+01 4.333114e-02 1.000000e+00
2.100000e+02 -8.000000e+01 4.333114e-02 1.000000e+00
2.150000e+02 -8.000000e+01 4.333114e-02 1.000000e+00
2.200000e+02 -8.000000e+01 4.333114e-02 1.000000e+00
2.250000e+02 -8.000000e+01 4.333114e-02 1.000000e+00
2.300000e+02 -8.000000e+01 4.333114e-02 1.000000e+00
2.350000e+02 -8.000000e+01 4.333114e-02 1.000000e+00
2.400000e+02 -8.000000e+01 4.333114e-02 1.000000e+00
2.450000e+02 -8.000000e+01 4.333114e-02 1.000000e+00
2.500000e+02 -8.000000e+01 4.333114e-02 1.000000e+00
2.550000e+02 -8.000000e+01 4.333114e-02 1.000000e+00
2.600000e+02 -8.000000e+01 4.333114e-02 1.000000e+00
2.650000e+02 -8.000000e+01 4.333114e-02 1.000000e+00
2.700000e+02 -8.000000e+01 4.333114e-02 1.000000e+00
2.750000e+02 -8.000000e+01 4.333114e-02 1.000000e+00
2.800000e+02 -8.000000e+01 4.333114e-02 1.000000e+00
2.850000e+02 -8.000000e+01 4.333114e-02 1.000000e+00
2.900000e+02 -8.000000e+01 4.333114e-02 1.000000e+00
2.950000e+02 -8.000000e+01 4.333114e-02 1.000000e+00
3.000000e+02 -8.000000e+01 4.333114e-02 1.000000e+00
3.050000e+02 -8.000000e+01 4.333114e-02 1.000000e+00
3.100000e+02 -8.000000e+01 4.333114e-02 1.000000e+00
3.150000e+02 -8.000000e+01 4.333114e-02 1.000000e+00
3.200000e+02 -8.000000e+01 4.333114e-02 1.000000e+00
3.250000e+02 -8.000000e+01 4.333114e-02 1.000000e+00
3.300000e+02 -8.000000e+01 4.333114e-02 1.000000e+00
3.350000e+02 -8.000000e+01 4.333114e-02 1.000000e+00
3.400000e+02 -8.000000e+01 4.333114e-02 1.000000e+00
3.450000e+02 -8.000000e+01 4.333114e-02 1.000000e+00
3.500000e+02 -8.000000e+01 4.333114e-02 1.000000e+00
3.550000e+02 -8.000000e+01 4.333114e-02 1.000000e+00
0.000000e+00 -7.500000e+01 4.333114e-02 1.000000e+00
5.000000e+00 -7.500000e+01 4.333114e-02 1.000000e+00
1.000000e+01 -7.500000e+01 4.333114e-02 1.000000e+00
1.500000e+01 -7.500000e+01 4.333114e-02 1.000000e+00
2.000000e+01 -7.500000e+01 4.333114e-02 1.000000e+00
2.500000e+01 -7.500000e+01 4.333114e-02 1.000000e+00
3.000000e+01 -7.500000e+01 4.333114e-02 1.000000e+00
3.500000e+01 -7.500000e+01 4.333114e-02 1.000000e+00
4.000000e+01 -7.500000e+01 4.333114e-02 1.000000e+00
4.500000e+01 -7.500000e+01 4.333114e-02 1.000000e+00
5.000000e+01 -7.500000e+01 4.333114e-02 1.000000e+00
5.500000e+01 -7.500000e+01 4.333114e-02 1.000000e+00
6.000000e+01 -7.500000e+01 4.333114e-02 1.000000e+00
6.500000e+01 -7.500000e+01 4.333114e-02 1.000000e+00
7.000000e+01 -7.500000e+01 4.333114e-02 1.000000e+00
7.500000e+01 -7.500000e+01 4.333114e-02 1.000000e+00
8.000000e+01 -7.500000e+01 4.333114e-02 1.000000e+00
8.500000e+01 -7.500000e+01 4.333114e-02 1.000000e+00
9.000000e+01 -7.500000e+01 4.333114e-02 1.000000e+00
9.500000e+01 -7.500000e+01 4.333114e-02 1.000000e+00
1.000000e+02 -7.500000e+01 4.333114e-02 1.000000e+00
1.050000e+02 -7.500000e+01 4.333114e-02 1.000000e+00
1.100000e+02 -7.500000e+01 4.333114e-02 1.000000e+00
1.150000e+02 -7.500000e+01 4.333114e-02 1.000000e+00
1.200000e+02 -7.500000e+01 4.333114e-02 1.000000e+00
1.250000e+02 -7.500000e+01 4.333114e-02 1.000000e+00
1.300000e+02 -7.500000e+01 4.333114e-02 1.000000e+00
1.350000e+02 -7.500000e+01 4.333114e-02 1.000000e+00
1.400000e+02 -7.500000e+01 4.333114e-02 1.000000e+00
1.450000e+02 -7.500000e+01 4.333114e-02 1.000000e+00
1.500000e+02 -7.500000e+01 4.333114e-02 1.000000e+00
1.550000e+02 -7.500000e+01 4.333114e-02 1.000000e+00
1.600000e+02 -7.500000e+01 4.333114e-02 1.000000e+00
1.650000e+02 -7.500000e+01 4.333114e-02 1.000000e+00
1.700000e+02 -7.500000e+01 4.333114e-02 1.000000e+00
1.750000e+02 -7.500000e+01 4.333114e-02 1.000000e+00
1.800000e+02 -7.500000e+01 4.333114e-02 1.000000e+00
1.850000e+02 -7.500000e+01 4.333114e-02 1.000000e+00
1.900000e+02 -7.500000e+01 4.333114e-02 1.000000e+00
1.950000e+02 -7.500000e+01 4.333114e-02 1.000000e+00
2.000000e+02 -7.500000e+01 4.333114e-02 1.000000e+00
2.050000e+02 -7.500000e+01 4.333114e-02 1.000000e+00
2.100000e+02 -7.500000e+01 4.333114e-02 1.000000e+00
2.150000e+02 -7.500000e+01 4.333114e-02 1.000000e+00
2.200000e+02 -7.500000e+01 4.333114e-02 1.000000e+00
2.250000e+02 -7.500000e+01 4.333114e-02 1.000000e+00
2.300000e+02 -7.500000e+01 4.333114e-02 1.000000e+00
2.350000e+02 -7.500000e+01 4.333114e-02 1.000000e+00
2.400000e+02 -7.500000e+01 4.333114e-02 1.000000e+00
2.450000e+02 -7.500000e+01 4.333114e-02 1.000000e+00
2.500000e+02 -7.500000e+01 7.141111e-02 2.713533e+00
2.550000e+02 -7.500000e+01 4.834645e-02 1.244722e+00
2.600000e+02 -7.500000e+01 4.333114e-02 1.000000e+00
2.650000e+02 -7.500000e+01 4.333114e-02 1.000000e+00
2.700000e+02 -7.500000e+01 9.462259e-02 4.759055e+00
2.750000e+02 -7.500000e+01 6.739738e-02 2.417452e+00
2.800000e+02 -7.500000e+01 1.121706e-01 6.681059e+00
2.850000e+02 -7.500000e+01 1.255567e-01 8.363340e+00
2.900000e+02 -7.500000e+01 7.718786e-02 3.169539e+00
2.950000e+02 -7.500000e+01 1.133376e-01 6.820300e+00
3.000000e+02 -7.500000e+01 1.261801e-01 8.446215e+00
3.050000e+02 -7.500000e+01 1.058601e-01 5.952780e+00
3.100000e+02 -7.500000e+01 1.454773e-01 1.121076e+01
3.150000e+02 -7.500000e+01 1.656605e-01 1.451187e+01
3.200000e+02 -7.500000e+01 8.562466e-02 3.898768e+00
3.250000e+02 -7.500000e+01 8.371857e-02 3.727459e+00
3.300000e+02 -7.500000e+01 9.445836e-02 4.742591e+00
3.350000e+02 -7.500000e+01 5.509738e-02 1.616289e+00
3.400000e+02 -7.500000e+01 5.101895e-02 1.386033e+00
3.450000e+02 -7.500000e+01 4.333114e-02 1.000000e+00
3.500000e+02 -7.500000e+01 4.333114e-02 1.000000e+00
3.550000e+02 -7.500000e+01 4.333114e-02 1.000000e+00
0.000000e+00 -7.000000e+01 8.159848e-02 3.541412e+00
5.000000e+00 -7.000000e+01 7.147954e-02 2.718729e+00
1.000000e+01 -7.000000e+01 8.951647e-02 4.260416e+00
1.500000e+01 -7.000000e+01 4.333114e-02 1.000000e+00
2.000000e+01 -7.000000e+01 4.333114e-02 1.000000e+00
2.500000e+01 -7.000000e+01 4.333114e-02 1.000000e+00
3.000000e+01 -7.000000e+01 4.333114e-02 1.000000e+00
3.500000e+01 -7.000000e+01 4.333114e-02 1.000000e+00
4.000000e+01 -7.000000e+01 4.333114e-02 1.000000e+00
4.500000e+01 -7.000000e+01 4.333114e-02 1.000000e+00
5.000000e+01 -7.000000e+01 4.333114e-02 1.000000e+00
5.500000e+01 -7.000000e+01 4.333114e-02 1.000000e+00
6.000000e+01 -7.000000e+01 4.333114e-02 1.000000e+00
6.500000e+01 -7.000000e+01 4.333114e-02 1.000000e+00
7.000000e+01 -7.000000e+01 4.333114e-02 1.000000e+00
7.500000e+01 -7.000000e+01 4.333114e-02 1.000000e+00
8.000000e+01 -7.000000e+01 4.333114e-02 1.000000e+00
8.500000e+01 -7.000000e+01 4.333114e-02 1.000000e+00
9.000000e+01 -7.000000e+01 4.333114e-02 1.000000e+00
9.500000e+01 -7.000000e+01 4.333114e-02 1.000000e+00
1.000000e+02 -7.000000e+01 4.333114e-02 1.000000e+00
1.050000e+02 -7.000000e+01 4.333114e-02 1.000000e+00
1.100000e+02 -7.000000e+01 4.333114e-02 1.000000e+00
1.150000e+02 -7.000000e+01 4.333114e-02 1.000000e+00
1.200000e+02 -7.000000e+01 4.333114e-02 1.000000e+00
1.250000e+02 -7.000000e+01 4.333114e-02 1.000000e+00
1.300000e+02 -7.000000e+01 4.333114e-02 1.000000e+00
1.350000e+02 -7.000000e+01 4.333114e-02 1.000000e+00
1.400000e+02 -7.000000e+01 4.333114e-02 1.000000e+00
1.450000e+02 -7.000000e+01 4.333114e-02 1.000000e+00
1.500000e+02 -7.000000e+01 4.333114e-02 1.000000e+00
1.550000e+02 -7.000000e+01 4.333114e-02 1.000000e+00
1.600000e+02 -7.000000e+01 4.333114e-02 1.000000e+00
1.650000e+02 -7.000000e+01 4.333114e-02 1.000000e+00
1.700000e+02 -7.000000e+01 4.333114e-02 1.000000e+00
1.750000e+02 -7.000000e+01 4.333114e-02 1.000000e+00
1.800000e+02 -7.000000e+01 4.333114e-02 1.000000e+00
1.850000e+02 -7.000000e+01 4.333114e-02 1.000000e+00
1.900000e+02 -7.000000e+01 4.333114e-02 1.000000e+00
1.950000e+02 -7.000000e+01 4.333114e-02 1.000000e+00
2.000000e+02 -7.000000e+01 4.333114e-02 1.000000e+00
2.050000e+02 -7.000000e+01 4.401793e-02 1.031933e+00
2.100000e+02 -7.000000e+01 4.333114e-02 1.000000e+00
2.150000e+02 -7.000000e+01 4.333114e-02 1.000000e+00
2.200000e+02 -7.000000e+01 4.333114e-02 1.000000e+00
2.250000e+02 -7.000000e+01 5.742401e-02 1.755545e+00
2.300000e+02 -7.000000e+01 1.299723e-01 8.959099e+00
2.350000e+02 -7.000000e+01 1.215305e-01 7.837757e+00
2.400000e+02 -7.000000e+01 7.637416e-02 3.103176e+00
2.450000e+02 -7.000000e+01 2.136250e-01 2.401118e+01
2.500000e+02 -7.000000e+01 1.306442e-01 9.051519e+00
2.550000e+02 -7.000000e+01 1.707430e-01 1.540867e+01
2.600000e+02 -7.000000e+01 1.207865e-01 7.742476e+00
2.650000e+02 -7.000000e+01 1.196717e-01 7.600790e+00
2.700000e+02 -7.000000e+01 8.410054e-02 3.761482e+00
2.750000e+02 -7.000000e+01 1.044753e-01 5.798535e+00
2.800000e+02 -7.000000e+01 1.672331e-01 1.478656e+01
2.850000e+02 -7.000000e+01 1.430773e-01 1.084600e+01
2.900000e+02 -7.000000e+01 2.089605e-01 2.298646e+01
2.950000e+02 -7.000000e+01 1.671734e-01 1.477608e+01
3.000000e+02 -7.000000e+01 1.244556e-01 8.217928e+00
3.050000e+02 -7.000000e+01 1.453467e-01 1.119075e+01
3.100000e+02 -7.000000e+01 2.880719e-01 4.322577e+01
3.150000e+02 -7.000000e+01 1.460521e-01 1.129900e+01
3.200000e+02 -7.000000e+01 1.216201e-01 7.849268e+00
3.250000e+02 -7.000000e+01 1.240264e-01 8.161583e+00
3.300000e+02 -7.000000e+01 1.241732e-01 8.180833e+00
3.350000e+02 -7.000000e+01 1.141650e-01 6.919876e+00
3.400000e+02 -7.000000e+01 1.270684e-01 8.565022e+00
3.450000e+02 -7.000000e+01 1.042638e-01 5.775152e+00
3.500000e+02 -7.000000e+01 1.275449e-01 8.629089e+00
3.550000e+02 -7.000000e+01 9.409506e-02 4.706271e+00
0.000000e+00 -6.500000e+01 9.907055e-02 5.215726e+00
5.000000e+00 -6.500000e+01 1.418331e-01 1.065925e+01
1.000000e+01 -6.500000e+01 1.963769e-01 2.032975e+01
1.500000e+01 -6.500000e+01 1.056921e-01 5.933964e+00
2.000000e+01 -6.500000e+01 6.307882e-02 2.117914e+00
2.500000e+01 -6.500000e+01 1.248712e-01 8.272659e+00
3.000000e+01 -6.500000e+01 4.958939e-02 1.309500e+00
3.500000e+01 -6.500000e+01 5.367279e-02 1.533856e+00
4.000000e+01 -6.500000e+01 4.333114e-02 1.000000e+00
4.500000e+01 -6.500000e+01 4.333114e-02 1.000000e+00
5.000000e+01 -6.500000e+01 4.333114e-02 1.000000e+00
5.500000e+01 -6.500000e+01 4.333114e-02 1.000000e+00
6.000000e+01 -6.500000e+01 4.333114e-02 1.000000e+00
6.500000e+01 -6.500000e+01 4.333114e-02 1.000000e+00
7.000000e+01 -6.500000e+01 4.333114e-02 1.000000e+00
7.500000e+01 -6.500000e+01 4.333114e-02 1.000000e+00
8.000000e+01 -6.500000e+01 4.333114e-02 1.000000e+00
8.500000e+01 -6.500000e+01 4.333114e-02 1.000000e+00
9.000000e+01 -6.500000e+01 4.333114e-02 1.000000e+00
9.500000e+01 -6.500000e+01 4.333114e-02 1.000000e+00
1.000000e+02 -6.500000e+01 4.333114e-02 1.000000e+00
1.050000e+02 -6.500000e+01 4.333114e-02 1.000000e+00
1.100000e+02 -6.500000e+01 4.333114e-02 1.000000e+00
1.150000e+02 -6.500000e+01 4.333114e-02 1.000000e+00
1.200000e+02 -6.500000e+01 4.333114e-02 1.000000e+00
1.250000e+02 -6.500000e+01 4.333114e-02 1.000000e+00
1.300000e+02 -6.500000e+01 4.333114e-02 1.000000e+00
1.350000e+02 -6.500000e+01 4.333114e-02 1.000000e+00
1.400000e+02 -6.500000e+01 4.333114e-02 1.000000e+00
1.450000e+02 -6.500000e+01 4.333114e-02 1.000000e+00
1.500000e+02 -6.500000e+01 4.333114e-02 1.000000e+00
1.550000e+02 -6.500000e+01 4.333114e-02 1.000000e+00
1.600000e+02 -6.500000e+01 4.333114e-02 1.000000e+00
1.650000e+02 -6.500000e+01 4.333114e-02 1.000000e+00
1.700000e+02 -6.500000e+01 4.333114e-02 1.000000e+00
1.750000e+02 -6.500000e+01 4.333114e-02 1.000000e+00
1.800000e+02 -6.500000e+01 4.333114e-02 1.000000e+00
1.850000e+02 -6.500000e+01 4.971878e-02 1.316338e+00
1.900000e+02 -6.500000e+01 4.578094e-02 1.116201e+00
1.950000e+02 -6.500000e+01 6.379671e-02 2.166340e+00
2.000000e+02 -6.500000e+01 5.255925e-02 1.470920e+00
2.050000e+02 -6.500000e+01 6.340231e-02 2.139667e+00
2.100000e+02 -6.500000e+01 1.454151e-01 1.120123e+01
2.150000e+02 -6.500000e+01 1.368751e-01 9.930873e+00
2.200000e+02 -6.500000e+01 2.064199e-01 2.243739e+01
2.250000e+02 -6.500000e+01 1.329932e-01 9.378317e+00
2.300000e+02 -6.500000e+01 1.283350e-01 8.735829e+00
2.350000e+02 -6.500000e+01 2.373876e-01 2.956369e+01
2.400000e+02 -6.500000e+01 1.193657e-01 7.562115e+00
2.450000e+02 -6.500000e+01 1.470475e-01 1.145259e+01
2.500000e+02 -6.500000e+01 2.472092e-01 3.201936e+01
2.550000e+02 -6.500000e+01 3.205625e-01 5.324821e+01
2.600000e+02 -6.500000e+01 3.694863e-01 7.012840e+01
2.650000e+02 -6.500000e+01 4.936458e-01 1.219332e+02
2.700000e+02 -6.500000e+01 6.217544e-01 1.873054e+02
2.750000e+02 -6.500000e+01 6.413316e-01 1.982366e+02
2.800000e+02 -6.500000e+01 8.589716e-01 3.338018e+02
2.850000e+02 -6.500000e+01 6.939481e-01 2.287362e+02
2.900000e+02 -6.500000e+01 7.273333e-01 2.488914e+02
2.950000e+02 -6.500000e+01 7.184759e-01 2.434857e+02
3.000000e+02 -6.500000e+01 6.956489e-01 2.297484e+02
3.050000e+02 -6.500000e+01 7.366111e-01 2.545981e+02
3.100000e+02 -6.500000e+01 5.568155e-01 1.527784e+02
3.150000e+02 -6.500000e+01 4.567881e-01 1.052821e+02
3.200000e+02 -6.500000e+01 3.260095e-01 5.502259e+01
3.250000e+02 -6.500000e+01 3.425385e-01 6.056949e+01
3.300000e+02 -6.500000e+01 2.147534e-01 2.426232e+01
3.350000e+02 -6.500000e+01 2.064523e-01 2.244434e+01
3.400000e+02 -6.500000e+01 1.237253e-01 8.122174e+00
3.450000e+02 -6.500000e+01 1.041655e-01 5.764301e+00
3.500000e+02 -6.500000e+01 1.130577e-01 6.786771e+00
3.550000e+02 -6.500000e+01 1.301614e-01 8.985067e+00
0.000000e+00 -6.000000e+01 2.064100e-01 2.243525e+01
5.000000e+00 -6.000000e+01 9.429040e-02 4.725782e+00
1.000000e+01 -6.000000e+01 1.551496e-01 1.274072e+01
1.500000e+01 -6.000000e+01 4.333114e-02 1.000000e+00
2.000000e+01 -6.000000e+01 2.064149e-01 2.243632e+01
2.500000e+01 -6.000000e+01 2.267996e-01 2.702134e+01
3.000000e+01 -6.000000e+01 1.284644e-01 8.753372e+00
3.500000e+01 -6.000000e+01 1.051322e-01 5.871457e+00
4.000000e+01 -6.000000e+01 7.370663e-02 2.890518e+00
4.500000e+01 -6.000000e+01 6.143899e-02 2.009344e+00
5.000000e+01 -6.000000e+01 5.471791e-02 1.594121e+00
5.500000e+01 -6.000000e+01 6.237088e-02 2.070693e+00
6.000000e+01 -6.000000e+01 6.127227e-02 1.998466e+00
6.500000e+01 -6.000000e+01 5.501029e-02 1.611188e+00
7.000000e+01 -6.000000e+01 6.372579e-02 2.161532e+00
7.500000e+01 -6.000000e+01 5.313655e-02 1.503384e+00
8.000000e+01 -6.000000e+01 4.333114e-02 1.000000e+00
8.500000e+01 -6.000000e+01 4.333114e-02 1.000000e+00
9.000000e+01 -6.000000e+01 4.333114e-02 1.000000e+00
9.500000e+01 -6.000000e+01 4.333114e-02 1.000000e+00
1.000000e+02 -6.000000e+01 4.333114e-02 1.000000e+00
1.050000e+02 -6.000000e+01 4.333114e-02 1.000000e+00
1.100000e+02 -6.000000e+01 4.333114e-02 1.000000e+00
1.150000e+02 -6.000000e+01 4.333114e-02 1.000000e+00
1.200000e+02 -6.000000e+01 4.333114e-02 1.000000e+00
1.250000e+02 -6.000000e+01 4.333114e-02 1.000000e+00
1.300000e+02 -6.000000e+01 4.333114e-02 1.000000e+00
1.350000e+02 -6.000000e+01 4.333114e-02 1.000000e+00
1.400000e+02 -6.000000e+01 4.333114e-02 1.000000e+00
1.450000e+02 -6.000000e+01 4.333114e-02 1.000000e+00
1.500000e+02 -6.000000e+01 4.333114e-02 1.000000e+00
1.550000e+02 -6.000000e+01 4.333114e-02 1.000000e+00
1.600000e+02 -6.000000e+01 4.333114e-02 1.000000e+00
1.650000e+02 -6.000000e+01 4.333114e-02 1.000000e+00
1.700000e+02 -6.000000e+01 4.333114e-02 1.000000e+00
1.750000e+02 -6.000000e+01 4.333114e-02 1.000000e+00
1.800000e+02 -6.000000e+01 4.988675e-02 1.325241e+00
1.850000e+02 -6.000000e+01 5.064570e-02 1.365841e+00
1.900000e+02 -6.000000e+01 6.859179e-02 2.503781e+00
1.950000e+02 -6.000000e+01 1.248712e-01 8.272659e+00
2.000000e+02 -6.000000e+01 9.497096e-02 4.794073e+00
2.050000e+02 -6.000000e+01 4.333114e-02 1.000000e+00
2.100000e+02 -6.000000e+01 1.708164e-01 1.542182e+01
2.150000e+02 -6.000000e+01 1.349528e-01 9.655305e+00
2.200000e+02 -6.000000e+01 1.265421e-01 8.494538e+00
2.250000e+02 -6.000000e+01 2.328451e-01 2.845958e+01
2.300000e+02 -6.000000e+01 4.026114e-01 8.273077e+01
2.350000e+02 -6.000000e+01 6.145941e-01 1.833662e+02
2.400000e+02 -6.000000e+01 8.186140e-01 3.069066e+02
2.450000e+02 -6.000000e+01 8.587177e-01 3.336304e+02
2.500000e+02 -6.000000e+01 1.108435e+00 5.139540e+02
2.550000e+02 -6.000000e+01 1.285313e+00 6.530657e+02
2.600000e+02 -6.000000e+01 1.537726e+00 8.630932e+02
2.650000e+02 -6.000000e+01 1.510558e+00 8.399580e+02
2.700000e+02 -6.000000e+01 1.659071e+00 9.677259e+02
2.750000e+02 -6.000000e+01 1.643361e+00 9.540668e+02
2.800000e+02 -6.000000e+01 1.827312e+00 1.115839e+03
2.850000e+02 -6.000000e+01 1.918724e+00 1.197566e+03
2.900000e+02 -6.000000e+01 2.167572e+00 1.423647e+03
2.950000e+02 -6.000000e+01 1.764795e+00 1.060430e+03
3.000000e+02 -6.000000e+01 2.071620e+00 1.335910e+03
3.050000e+02 -6.000000e+01 1.546735e+00 8.707898e+02
3.100000e+02 -6.000000e+01 1.678692e+00 9.848288e+02
3.150000e+02 -6.000000e+01 1.339310e+00 6.969876e+02
3.200000e+02 -6.000000e+01 1.230741e+00 6.093231e+02
3.250000e+02 -6.000000e+01 8.587190e-01 3.336313e+02
3.300000e+02 -6.000000e+01 8.459798e-01 3.250656e+02
3.350000e+02 -6.000000e+01 6.355884e-01 1.950057e+02
3.400000e+02 -6.000000e+01 6.555314e-01 2.063095e+02
3.450000e+02 -6.000000e+01 3.541032e-01 6.459418e+01
3.500000e+02 -6.000000e+01 2.636299e-01 3.633227e+01
3.550000e+02 -6.000000e+01 2.122439e-01 2.370554e+01
0.000000e+00 -5.500000e+01 4.904806e-01 1.204632e+02
5.000000e+00 -5.500000e+01 4.614165e-01 1.073162e+02
1.000000e+01 -5.500000e+01 2.866660e-01 4.281405e+01
1.500000e+01 -5.500000e+01 1.656393e-01 1.450819e+01
2.000000e+01 -5.500000e+01 1.248699e-01 8.272495e+00
2.500000e+01 -5.500000e+01 1.440814e-01 1.099788e+01
3.000000e+01 -5.500000e+01 1.165712e-01 7.213526e+00
3.500000e+01 -5.500000e+01 1.129158e-01 6.769814e+00
4.000000e+01 -5.500000e+01 1.559733e-01 1.287543e+01
4.500000e+01 -5.500000e+01 1.073120e-01 6.116662e+00
5.000000e+01 -5.500000e+01 2.174347e-01 2.486407e+01
5.500000e+01 -5.500000e+01 8.139444e-02 3.523756e+00
6.000000e+01 -5.500000e+01 7.197970e-02 2.756853e+00
6.500000e+01 -5.500000e+01 8.542062e-02 3.880247e+00
7.000000e+01 -5.500000e+01 7.223850e-02 2.776683e+00
7.500000e+01 -5.500000e+01 4.333114e-02 1.000000e+00
8.000000e+01 -5.500000e+01 4.333114e-02 1.000000e+00
8.500000e+01 -5.500000e+01 4.333114e-02 1.000000e+00
9.000000e+01 -5.500000e+01 4.333114e-02 1.000000e+00
9.500000e+01 -5.500000e+01 4.333114e-02 1.000000e+00
1.000000e+02 -5.500000e+01 4.333114e-02 1.000000e+00
1.050000e+02 -5.500000e+01 4.333114e-02 1.000000e+00
1.100000e+02 -5.500000e+01 4.333114e-02 1.000000e+00
1.150000e+02 -5.500000e+01 4.333114e-02 1.000000e+00
1.200000e+02 -5.500000e+01 4.333114e-02 1.000000e+00
1.250000e+02 -5.500000e+01 4.333114e-02 1.000000e+00
1.300000e+02 -5.500000e+01 4.333114e-02 1.000000e+00
1.350000e+02 -5.500000e+01 4.333114e-02 1.000000e+00
1.400000e+02 -5.500000e+01 4.333114e-02 1.000000e+00
1.450000e+02 -5.500000e+01 4.333114e-02 1.000000e+00
1.500000e+02 -5.500000e+01 4.333114e-02 1.000000e+00
1.550000e+02 -5.500000e+01 4.333114e-02 1.000000e+00
1.600000e+02 -5.500000e+01 4.333114e-02 1.000000e+00
1.650000e+02 -5.500000e+01 4.333114e-02 1.000000e+00
1.700000e+02 -5.500000e+01 1.255082e-01 8.356905e+00
1.750000e+02 -5.500000e+01 4.333114e-02 1.000000e+00
1.800000e+02 -5.500000e+01 7.331098e-02 2.859617e+00
1.850000e+02 -5.500000e+01 1.256102e-01 8.370437e+00
1.900000e+02 -5.500000e+01 1.350635e-01 9.671075e+00
1.950000e+02 -5.500000e+01 1.321260e-01 9.257007e+00
2.000000e+02 -5.500000e+01 1.759337e-01 1.635164e+01
2.050000e+02 -5.500000e+01 3.898722e-01 7.777488e+01
2.100000e+02 -5.500000e+01 5.095228e-01 1.294181e+02
2.150000e+02 -5.500000e+01 7.020639e-01 2.335803e+02
2.200000e+02 -5.500000e+01 9.510896e-01 3.977326e+02
2.250000e+02 -5.500000e+01 1.108138e+00 5.137271e+02
2.300000e+02 -5.500000e+01 1.300056e+00 6.649964e+02
2.350000e+02 -5.500000e+01 1.468824e+00 8.046460e+02
2.400000e+02 -5.500000e+01 1.798154e+00 1.089945e+03
2.450000e+02 -5.500000e+01 2.104645e+00 1.366034e+03
2.500000e+02 -5.500000e+01 2.504233e+00 1.735950e+03
2.550000e+02 -5.500000e+01 2.306022e+00 1.551311e+03
2.600000e+02 -5.500000e+01 2.579713e+00 1.806759e+03
2.650000e+02 -5.500000e+01 2.706221e+00 1.925974e+03
2.700000e+02 -5.500000e+01 3.338278e+00 2.529341e+03
2.750000e+02 -5.500000e+01 3.233617e+00 2.428704e+03
2.800000e+02 -5.500000e+01 2.916719e+00 2.125632e+03
2.850000e+02 -5.500000e+01 2.652572e+00 1.875340e+03
2.900000e+02 -5.500000e+01 2.886633e+00 2.097006e+03